% Model:              cavity-set1-0.01.mph
% freq (Hz)                                       V^2 (kg^2*m^6/(s^6*A^2))                          V^2 (kg^2*m^6/(s^6*A^2))                          V^2 (kg^2*m^6/(s^6*A^2))                          V^2 (kg^2*m^6/(s^6*A^2))                          V^2 (kg^2*m^6/(s^6*A^2))                          V^2 (kg^2*m^6/(s^6*A^2))                          V^2 (kg^2*m^6/(s^6*A^2))
1.0734421352873122E15                             8.333315744402281E14                              8.333272982508286E14                              8.333099777519118E14                              8.332406874998102E14                              8.329639869632232E14                              8.31863174702064E14                               8.275318300246855E14
1.0735516701990762E15                             8.333315739111496E14                              8.333272969742405E14                              8.33309973219595E14                               8.332406699102992E14                              8.329639173046478E14                              8.318628989209312E14                              8.275307553260575E14
1.0736612051108402E15                             8.333315733816618E14                              8.333272956969566E14                              8.333099686850346E14                              8.332406523122871E14                              8.329638476126618E14                              8.318626230081396E14                              8.275296801196555E14
1.0737707400226042E15                             8.333315728517631E14                              8.333272944189721E14                              8.333099641482306E14                              8.332406347057708E14                              8.329637778872394E14                              8.318623469635992E14                              8.275286044051358E14
1.0738802749343682E15                             8.333315723214562E14                              8.333272931402962E14                              8.333099596091752E14                              8.332406170907386E14                              8.329637081283496E14                              8.318620707872164E14                              8.275275281821561E14
1.0739898098461322E15                             8.33331571790735E14                               8.333272918609212E14                              8.33309955067868E14                               8.332405994671945E14                              8.329636383359778E14                              8.318617944789136E14                              8.275264514503696E14
1.0740993447578964E15                             8.333315712596048E14                              8.333272905808406E14                              8.333099505243069E14                              8.332405818351242E14                              8.329635685100979E14                              8.318615180385849E14                              8.275253742094372E14
1.0742088796696604E15                             8.333315707280624E14                              8.333272893000702E14                              8.333099459784942E14                              8.33240564194528E14                               8.329634986506894E14                              8.318612414661515E14                              8.275242964590052E14
1.0743184145814244E15                             8.333315701961068E14                              8.333272880185939E14                              8.333099414304215E14                              8.332405465453958E14                              8.329634287577281E14                              8.318609647615194E14                              8.275232181987399E14
1.0744279494931884E15                             8.333315696637411E14                              8.333272867364184E14                              8.333099368800974E14                              8.33240528887719E14                               8.329633588311921E14                              8.318606879245962E14                              8.275221394282908E14
1.0745374844049524E15                             8.333315691309594E14                              8.333272854535452E14                              8.333099323275076E14                              8.332405112215001E14                              8.329632888710548E14                              8.318604109552938E14                              8.27521060147318E14
1.0746470193167164E15                             8.333315685977635E14                              8.33327284169968E14                               8.333099277726609E14                              8.332404935467255E14                              8.329632188772918E14                              8.318601338535142E14                              8.275199803554672E14
1.0747565542284804E15                             8.333315680641566E14                              8.333272828856915E14                              8.333099232155538E14                              8.332404758633924E14                              8.329631488498871E14                              8.318598566191782E14                              8.275189000523988E14
1.0748660891402444E15                             8.333315675301359E14                              8.333272816007039E14                              8.333099186561794E14                              8.33240458171496E14                               8.329630787888151E14                              8.318595792521869E14                              8.275178192377625E14
1.0749756240520084E15                             8.333315669956975E14                              8.33327280315022E14                               8.33309914094544E14                               8.332404404710251E14                              8.329630086940489E14                              8.318593017524522E14                              8.275167379112165E14
1.0750851589637724E15                             8.333315664608416E14                              8.333272790286332E14                              8.33309909530637E14                               8.332404227619831E14                              8.329629385655641E14                              8.318590241198839E14                              8.27515656072412E14
1.0751946938755364E15                             8.33331565925572E14                               8.333272777415379E14                              8.333099049644618E14                              8.332404050443542E14                              8.329628684033445E14                              8.318587463543925E14                              8.275145737209948E14
1.0753042287873005E15                             8.333315653898839E14                              8.333272764537408E14                              8.333099003960172E14                              8.332403873181399E14                              8.329627982073622E14                              8.318584684558778E14                              8.27513490856633E14
1.0754137636990645E15                             8.333315648537804E14                              8.333272751652376E14                              8.33309895825297E14                               8.33240369583325E14                               8.329627279775955E14                              8.318581904242606E14                              8.275124074789656E14
1.0755232986108285E15                             8.333315643172615E14                              8.333272738760275E14                              8.333098912523092E14                              8.332403518399181E14                              8.329626577140199E14                              8.318579122594406E14                              8.275113235876504E14
1.0756328335225925E15                             8.33331563780321E14                               8.333272725861106E14                              8.333098866770439E14                              8.332403340878975E14                              8.329625874166091E14                              8.31857633961332E14                               8.275102391823395E14
1.0757423684343565E15                             8.333315632429624E14                              8.333272712954839E14                              8.333098820995032E14                              8.332403163272689E14                              8.32962517085349E14                               8.318573555298386E14                              8.275091542626764E14
1.0758519033461205E15                             8.333315627051869E14                              8.333272700041558E14                              8.333098775196788E14                              8.332402985580242E14                              8.329624467202092E14                              8.318570769648746E14                              8.27508068828322E14
1.0759614382578845E15                             8.333315621669875E14                              8.33327268712118E14                               8.333098729375779E14                              8.332402807801464E14                              8.329623763211666E14                              8.318567982663421E14                              8.275069828789214E14
1.0760709731696485E15                             8.333315616283735E14                              8.333272674193682E14                              8.333098683531931E14                              8.332402629936432E14                              8.329623058881969E14                              8.31856519434154E14                               8.275058964141259E14
1.0761805080814125E15                             8.333315610893345E14                              8.333272661259089E14                              8.333098637665265E14                              8.332402451985021E14                              8.329622354212771E14                              8.31856240468214E14                               8.275048094335889E14
1.0762900429931765E15                             8.333315605498744E14                              8.333272648317428E14                              8.333098591775726E14                              8.332402273947165E14                              8.329621649203915E14                              8.318559613684349E14                              8.275037219369534E14
1.0763995779049405E15                             8.333315600099972E14                              8.333272635368616E14                              8.333098545863295E14                              8.332402095822866E14                              8.329620943855051E14                              8.318556821347256E14                              8.275026339238751E14
1.0765091128167046E15                             8.333315594696931E14                              8.33327262241275E14                               8.333098499928061E14                              8.332401917612009E14                              8.329620238166029E14                              8.318554027669831E14                              8.275015453940012E14
1.0766186477284686E15                             8.333315589289718E14                              8.333272609449725E14                              8.333098453969881E14                              8.332401739314518E14                              8.329619532136534E14                              8.318551232651264E14                              8.275004563469778E14
1.0767281826402326E15                             8.333315583878246E14                              8.333272596479566E14                              8.33309840798879E14                               8.332401560930356E14                              8.329618825766379E14                              8.318548436290621E14                              8.27499366782454E14
1.0768377175519966E15                             8.333315578462486E14                              8.333272583502296E14                              8.333098361984752E14                              8.332401382459479E14                              8.329618119055364E14                              8.318545638586949E14                              8.27498276700079E14
1.0769472524637606E15                             8.333315573042541E14                              8.33327257051789E14                               8.333098315957764E14                              8.33240120390183E14                               8.329617412003189E14                              8.318542839539302E14                              8.274971860995081E14
1.0770567873755246E15                             8.333315567618309E14                              8.33327255752634E14                               8.33309826990777E14                               8.332401025257322E14                              8.329616704609628E14                              8.318540039146812E14                              8.274960949803726E14
1.0771663222872886E15                             8.333315562189862E14                              8.333272544527638E14                              8.333098223834882E14                              8.332400846525895E14                              8.329615996874454E14                              8.318537237408552E14                              8.274950033423281E14
1.0772758571990526E15                             8.333315556757174E14                              8.333272531521775E14                              8.33309817773895E14                               8.3324006677075E14                                8.329615288797486E14                              8.318534434323508E14                              8.274939111850272E14
1.0773853921108166E15                             8.333315551320181E14                              8.333272518508758E14                              8.333098131619965E14                              8.33240048880206E14                               8.329614580378401E14                              8.31853162989083E14                               8.274928185081091E14
1.0774949270225806E15                             8.333315545878951E14                              8.333272505488588E14                              8.333098085477952E14                              8.33240030980953E14                               8.329613871617004E14                              8.31852882410959E14                               8.27491725311219E14
1.0776044619343446E15                             8.333315540433474E14                              8.333272492461234E14                              8.333098039312932E14                              8.33240013072986E14                               8.329613162513026E14                              8.318526016978838E14                              8.274906315940091E14
1.0777139968461088E15                             8.333315534983668E14                              8.333272479426736E14                              8.333097993124822E14                              8.33239995156294E14                               8.329612453066298E14                              8.318523208497636E14                              8.274895373561192E14
1.0778235317578728E15                             8.333315529529586E14                              8.333272466385008E14                              8.333097946913618E14                              8.33239977230881E14                               8.329611743276525E14                              8.318520398665066E14                              8.27488442597194E14
1.0779330666696368E15                             8.333315524071208E14                              8.333272453336124E14                              8.333097900679329E14                              8.332399592967294E14                              8.329611033143458E14                              8.31851758748015E14                               8.274873473168855E14
1.0780426015814008E15                             8.333315518608604E14                              8.333272440280019E14                              8.333097854421891E14                              8.332399413538394E14                              8.329610322666876E14                              8.31851477494207E14                               8.274862515148281E14
1.0781521364931648E15                             8.333315513141622E14                              8.333272427216738E14                              8.333097808141366E14                              8.332399234021964E14                              8.329609611846588E14                              8.318511961049772E14                              8.274851551906771E14
1.0782616714049288E15                             8.333315507670379E14                              8.333272414146258E14                              8.333097761837638E14                              8.332399054418138E14                              8.329608900682292E14                              8.31850914580237E14                               8.274840583440674E14
1.0783712063166928E15                             8.333315502194812E14                              8.33327240106855E14                               8.333097715510784E14                              8.332398874726649E14                              8.32960818917381E14                               8.31850632919894E14                               8.274829609746494E14
1.0784807412284568E15                             8.333315496714966E14                              8.333272387983622E14                              8.333097669160706E14                              8.332398694947518E14                              8.32960747732081E14                               8.318503511238531E14                              8.274818630820591E14
1.0785902761402208E15                             8.333315491230756E14                              8.333272374891485E14                              8.333097622787455E14                              8.332398515080718E14                              8.329606765123135E14                              8.318500691920181E14                              8.274807646659422E14
1.0786998110519848E15                             8.333315485742258E14                              8.333272361792094E14                              8.333097576390974E14                              8.332398335126129E14                              8.329606052580534E14                              8.318497871243029E14                              8.274796657259471E14
1.0788093459637488E15                             8.333315480249405E14                              8.333272348685476E14                              8.333097529971262E14                              8.332398155083711E14                              8.329605339692728E14                              8.318495049206059E14                              8.274785662617066E14
1.0789188808755129E15                             8.333315474752211E14                              8.333272335571632E14                              8.333097483528265E14                              8.332397974953384E14                              8.329604626459484E14                              8.318492225808354E14                              8.274774662728696E14
1.0790284157872769E15                             8.333315469250714E14                              8.333272322450518E14                              8.333097437062054E14                              8.332397794735116E14                              8.329603912880642E14                              8.318489401048974E14                              8.274763657590751E14
1.0791379506990409E15                             8.333315463744846E14                              8.33327230932216E14                               8.333097390572504E14                              8.332397614428852E14                              8.329603198955849E14                              8.318486574926968E14                              8.274752647199644E14
1.0792474856108049E15                             8.333315458234639E14                              8.33327229618656E14                               8.333097344059688E14                              8.332397434034505E14                              8.329602484684909E14                              8.318483747441428E14                              8.274741631551789E14
1.0793570205225689E15                             8.333315452720049E14                              8.333272283043675E14                              8.333097297523559E14                              8.332397253552005E14                              8.329601770067575E14                              8.31848091859138E14                               8.274730610643524E14
1.0794665554343329E15                             8.333315447201129E14                              8.333272269893478E14                              8.333097250964061E14                              8.33239707298133E14                               8.329601055103659E14                              8.318478088375884E14                              8.274719584471395E14
1.0795760903460969E15                             8.333315441677875E14                              8.333272256736064E14                              8.333097204381221E14                              8.332396892322391E14                              8.329600339792885E14                              8.318475256793991E14                              8.27470855303172E14
1.0796856252578609E15                             8.33331543615018E14                               8.333272243571375E14                              8.333097157775042E14                              8.332396711575091E14                              8.329599624134915E14                              8.31847242384478E14                               8.274697516320842E14
1.0797951601696249E15                             8.333315430618136E14                              8.333272230399364E14                              8.33309711114543E14                               8.332396530739411E14                              8.32959890812968E14                               8.318469589527251E14                              8.274686474335235E14
1.0799046950813889E15                             8.333315425081728E14                              8.333272217220062E14                              8.33309706449243E14                               8.332396349815325E14                              8.329598191776819E14                              8.318466753840504E14                              8.27467542707129E14
1.080014229993153E15                              8.333315419540884E14                              8.333272204033454E14                              8.333097017815968E14                              8.332396168802662E14                              8.329597475076161E14                              8.318463916783582E14                              8.2746643745253E14
1.080123764904917E15                              8.333315413995725E14                              8.333272190839552E14                              8.333096971116134E14                              8.332395987701446E14                              8.329596758027385E14                              8.318461078355524E14                              8.274653316693794E14
1.080233299816681E15                              8.333315408446104E14                              8.333272177638304E14                              8.333096924392786E14                              8.332395806511649E14                              8.32959604063031E14                               8.318458238555408E14                              8.274642253573028E14
1.080342834728445E15                              8.333315402892102E14                              8.333272164429782E14                              8.333096877645991E14                              8.332395625233126E14                              8.329595322884665E14                              8.318455397382245E14                              8.274631185159408E14
1.080452369640209E15                              8.333315397333726E14                              8.333272151213918E14                              8.333096830875692E14                              8.332395443865822E14                              8.329594604790229E14                              8.31845255483507E14                               8.274620111449332E14
1.080561904551973E15                              8.333315391770888E14                              8.333272137990728E14                              8.333096784081911E14                              8.332395262409702E14                              8.329593886346738E14                              8.318449710912965E14                              8.274609032439122E14
1.080671439463737E15                              8.333315386203665E14                              8.333272124760166E14                              8.3330967372646E14                                8.332395080864724E14                              8.329593167553932E14                              8.318446865615011E14                              8.274597948125252E14
1.080780974375501E15                              8.33331538063201E14                               8.333272111522312E14                              8.333096690423706E14                              8.332394899230774E14                              8.329592448411622E14                              8.318444018940175E14                              8.274586858503992E14
1.080890509287265E15                              8.333315375055898E14                              8.333272098277051E14                              8.333096643559266E14                              8.332394717507771E14                              8.32959172891953E14                               8.318441170887531E14                              8.274575763571704E14
1.081000044199029E15                              8.33331536947534E14                               8.333272085024498E14                              8.333096596671255E14                              8.332394535695774E14                              8.329591009077392E14                              8.318438321456158E14                              8.274564663324758E14
1.081109579110793E15                              8.33331536389039E14                               8.333272071764505E14                              8.333096549759652E14                              8.332394353794578E14                              8.329590288884982E14                              8.318435470645044E14                              8.274553557759471E14
1.0812191140225571E15                             8.333315358300994E14                              8.333272058497225E14                              8.333096502824504E14                              8.332394171804249E14                              8.32958956834209E14                               8.318432618453315E14                              8.274542446872301E14
1.0813286489343211E15                             8.333315352707148E14                              8.33327204522251E14                               8.333096455865669E14                              8.332393989724602E14                              8.329588847448431E14                              8.318429764879888E14                              8.27453133065946E14
1.0814381838460851E15                             8.333315347108832E14                              8.333272031940471E14                              8.33309640888316E14                               8.332393807555635E14                              8.329588126203738E14                              8.318426909923896E14                              8.274520209117384E14
1.0815477187578491E15                             8.333315341506018E14                              8.333272018650985E14                              8.33309636187701E14                               8.332393625297308E14                              8.329587404607825E14                              8.318424053584338E14                              8.27450908224243E14
1.0816572536696131E15                             8.333315335898796E14                              8.333272005354144E14                              8.333096314847194E14                              8.332393442949504E14                              8.32958668266038E14                               8.318421195860241E14                              8.274497950030818E14
1.0817667885813771E15                             8.333315330287055E14                              8.333271992049892E14                              8.333096267793675E14                              8.332393260512181E14                              8.329585960361255E14                              8.318418336750664E14                              8.27448681247894E14
1.0818763234931411E15                             8.333315324670869E14                              8.333271978738266E14                              8.333096220716422E14                              8.332393077985276E14                              8.329585237710114E14                              8.318415476254646E14                              8.27447566958317E14
1.0819858584049051E15                             8.333315319050165E14                              8.333271965419182E14                              8.333096173615459E14                              8.332392895368754E14                              8.329584514706736E14                              8.318412614371229E14                              8.274464521339791E14